{
  "hydrogen": {
    "symbol": "H",
    "atomic_number": 1,
    "group": 1,
    "period": 1,
    "phase": "gas",
    "element_category": "diatomic nonmetal",
    "bonding_type": "diatomic",
    "atomic_weight": 1.008,
    "melting_point": 14.01,
    "boiling_point": 20.28,
    "year_discovered": 1766
  },
  "helium": {
    "symbol": "He",
    "atomic_number": 2,
    "group": 18,
    "period": 1,
    "phase": "gas",
    "element_category": "noble gas",
    "bonding_type": "atomic",
    "atomic_weight": 4.002602,
    "melting_point": "unknown",
    "boiling_point": 4.22,
    "year_discovered": 1868
  },
  "lithium": {
    "symbol": "Li",
    "atomic_number": 3,
    "group": 1,
    "period": 2,
    "phase": "solid",
    "element_category": "alkali metal",
    "bonding_type": "metallic",
    "atomic_weight": 6.94,
    "melting_point": 453.69,
    "boiling_point": 1615,
    "year_discovered": 1817
  },
  "beryllium": {
    "symbol": "Be",
    "atomic_number": 4,
    "group": 2,
    "period": 2,
    "phase": "solid",
    "element_category": "alkaline earth metal",
    "bonding_type": "metallic",
    "atomic_weight": 9.0121831,
    "melting_point": 1560,
    "boiling_point": 2743,
    "year_discovered": 1798
  },
  "boron": {
    "symbol": "Be",
    "atomic_number": 5,
    "group": 13,
    "period": 2,
    "phase": "solid",
    "element_category": "metalloid",
    "bonding_type": "covalent network",
    "atomic_weight": 10.81,
    "melting_point": 2348,
    "boiling_point": 4273,
    "year_discovered": 1807
  },
  "carbon": {
    "symbol": "C",
    "atomic_number": 6,
    "group": 14,
    "period": 2,
    "phase": "solid",
    "element_category": "polyatomic nonmetals",
    "bonding_type": "covalent network",
    "atomic_weight": 12.011,
    "melting_point": 3823,
    "boiling_point": 4300,
    "year_discovered": "ancient"
  },
  "nitrogen": {
    "symbol": "N",
    "atomic_number": 7,
    "group": 15,
    "period": 2,
    "phase": "gas",
    "element_category": "diatomic nonmetal",
    "bonding_type": "diatomic",
    "atomic_weight": 14.007,
    "melting_point": 63.1,
    "boiling_point": 77.36,
    "year_discovered": 1772
  },
  "oxygen": {
    "symbol": "O",
    "atomic_number": 8,
    "group": 16,
    "period": 2,
    "phase": "gas",
    "element_category": "diatomic nonmetal",
    "bonding_type": "diatomic",
    "atomic_weight": 15.999,
    "melting_point": 54.9,
    "boiling_point": 90.3,
    "year_discovered": 1774
  },
  "fluorine": {
    "symbol": "F",
    "atomic_number": 9,
    "group": 17,
    "period": 2,
    "phase": "gas",
    "element_category": "diatomic nonmetal",
    "bonding_type": "atomic",
    "atomic_weight": 18.998403163,
    "melting_point": 53.6,
    "boiling_point": 85.03,
    "year_discovered": 1670
  },
  "neon": {
    "symbol": "Ne",
    "atomic_number": 10,
    "group": 18,
    "period": 2,
    "phase": "gas",
    "element_category": "noble gas",
    "bonding_type": "atomic",
    "atomic_weight": 20.1797,
    "melting_point": 24.56,
    "boiling_point": 27.07,
    "year_discovered": 1898
  },
  "sodium": {
    "symbol": "Na",
    "atomic_number": 11,
    "group": 1,
    "period": 3,
    "phase": "solid",
    "element_category": "alkali metal",
    "bonding_type": "metallic",
    "atomic_weight": 22.98976928,
    "melting_point": 370.87,
    "boiling_point": 1156,
    "year_discovered": 1807
  },
  "magnesium": {
    "symbol": "Mg",
    "atomic_number": 12,
    "group": 2,
    "period": 3,
    "phase": "solid",
    "element_category": "alkaline earth metal",
    "bonding_type": "metallic",
    "atomic_weight": 24.305,
    "melting_point": 923,
    "boiling_point": 1363,
    "year_discovered": 1808
  },
  "aluminum": {
    "symbol": "Al",
    "atomic_number": 13,
    "group": 13,
    "period": 3,
    "phase": "solid",
    "element_category": "post-transition metal",
    "bonding_type": "metallic",
    "atomic_weight": 26.9815385,
    "melting_point": 933.47,
    "boiling_point": 2792,
    "year_discovered": "ancient"
  },
  "silicon": {
    "symbol": "Si",
    "atomic_number": 14,
    "group": 14,
    "period": 3,
    "phase": "solid",
    "element_category": "metalloid",
    "bonding_type": "metallic",
    "atomic_weight": 28.085,
    "melting_point": 1687,
    "boiling_point": 3200,
    "year_discovered": 1854
  },
  "phosphorus": {
    "symbol": "P",
    "atomic_number": 15,
    "group": 15,
    "period": 3,
    "phase": "solid",
    "element_category": "polyatomic nonmetals",
    "bonding_type": "covalent network",
    "atomic_weight": 30.973761998,
    "melting_point": 317.4,
    "boiling_point": 553.7,
    "year_discovered": 1669
  },
  "sulfur": {
    "symbol": "S",
    "atomic_number": 16,
    "group": 16,
    "period": 3,
    "phase": "solid",
    "element_category": "polyatomic nonmetals",
    "bonding_type": "covalent network",
    "atomic_weight": 32.06,
    "melting_point": 388.36,
    "boiling_point": 717.87,
    "year_discovered": "ancient"
  },
  "chlorine": {
    "symbol": "Cl",
    "atomic_number": 17,
    "group": 17,
    "period": 3,
    "phase": "gas",
    "element_category": "diatomic nonmetal",
    "bonding_type": "covalent network",
    "atomic_weight": 35.45,
    "melting_point": 171.7,
    "boiling_point": 239.11,
    "year_discovered": 1774
  },
  "argon": {
    "symbol": "Ar",
    "atomic_number": 18,
    "group": 18,
    "period": 3,
    "phase": "gas",
    "element_category": "noble gas",
    "bonding_type": "atomic",
    "atomic_weight": 39.0983,
    "melting_point": 83.9,
    "boiling_point": 87.4,
    "year_discovered": 1894
  },
  "potassium": {
    "symbol": "K",
    "atomic_number": 19,
    "group": 1,
    "period": 4,
    "phase": "solid",
    "element_category": "alkali metal",
    "bonding_type": "metallic",
    "atomic_weight": 39.948,
    "melting_point": 336.53,
    "boiling_point": 1032,
    "year_discovered": 1807
  },
  "calcium": {
    "symbol": "Ca",
    "atomic_number": 20,
    "group": 2,
    "period": 4,
    "phase": "solid",
    "element_category": "alkaline earth metal",
    "bonding_type": "metallic",
    "atomic_weight": 40.078,
    "melting_point": 1115,
    "boiling_point": 1757,
    "year_discovered": "ancient"
  },
  "scandium": {
    "symbol": "Sc",
    "atomic_number": 21,
    "group": 3,
    "period": 4,
    "phase": "solid",
    "element_category": "transition metal",
    "bonding_type": "metallic",
    "atomic_weight": 44.955908,
    "melting_point": 1814,
    "boiling_point": 3103,
    "year_discovered": 1876
  },
  "titanium": {
    "symbol": "Ti",
    "atomic_number": 22,
    "group": 4,
    "period": 4,
    "phase": "solid",
    "element_category": "transition metal",
    "bonding_type": "metallic",
    "atomic_weight": 47.867,
    "melting_point": 1941,
    "boiling_point": 3560,
    "year_discovered": 1791
  },
  "vanadium": {
    "symbol": "V",
    "atomic_number": 23,
    "group": 5,
    "period": 4,
    "phase": "solid",
    "element_category": "transition metal",
    "bonding_type": "metallic",
    "atomic_weight": 50.9415,
    "melting_point": 2183,
    "boiling_point": 3680,
    "year_discovered": 1803
  },
  "chromium": {
    "symbol": "Cr",
    "atomic_number": 24,
    "group": 6,
    "period": 4,
    "phase": "solid",
    "element_category": "transition metal",
    "bonding_type": "metallic",
    "atomic_weight": 51.9961,
    "melting_point": 2180,
    "boiling_point": 2944,
    "year_discovered": "ancient"
  },
  "manganese": {
    "symbol": "Mn",
    "atomic_number": 25,
    "group": 7,
    "period": 4,
    "phase": "solid",
    "element_category": "transition metal",
    "bonding_type": "metallic",
    "atomic_weight": 54.938044,
    "melting_point": 1519,
    "boiling_point": 2334,
    "year_discovered": 1774
  },
  "iron": {
    "symbol": "Fe",
    "atomic_number": 26,
    "group": 8,
    "period": 4,
    "phase": "solid",
    "element_category": "transition metal",
    "bonding_type": "metallic",
    "atomic_weight": 55.845,
    "melting_point": 1811,
    "boiling_point": 3134,
    "year_discovered": "ancient"
  },
  "cobalt": {
    "symbol": "Co",
    "atomic_number": 27,
    "group": 9,
    "period": 4,
    "phase": "solid",
    "element_category": "transition metal",
    "bonding_type": "metallic",
    "atomic_weight": 58.6934,
    "melting_point": 1768,
    "boiling_point": 3200,
    "year_discovered": "ancient"
  },
  "nickel": {
    "symbol": "Ni",
    "atomic_number": 28,
    "group": 10,
    "period": 4,
    "phase": "solid",
    "element_category": "transition metal",
    "bonding_type": "metallic",
    "atomic_weight": 58.933194,
    "melting_point": 1728,
    "boiling_point": 3186,
    "year_discovered": 1751
  },
  "copper": {
    "symbol": "Cu",
    "atomic_number": 29,
    "group": 11,
    "period": 4,
    "phase": "solid",
    "element_category": "transition metal",
    "bonding_type": "metallic",
    "atomic_weight": 63.546,
    "melting_point": 1357.77,
    "boiling_point": 2835,
    "year_discovered": "ancient"
  },
  "zinc": {
    "symbol": "Zn",
    "atomic_number": 30,
    "group": 12,
    "period": 4,
    "phase": "solid",
    "element_category": "transition metal",
    "bonding_type": "metallic",
    "atomic_weight": 65.38,
    "melting_point": 692.68,
    "boiling_point": 1180,
    "year_discovered": 1746
  },
  "gallium": {
    "symbol": "Ga",
    "atomic_number": 31,
    "group": 13,
    "period": 4,
    "phase": "solid",
    "element_category": "post-transition metal",
    "bonding_type": "metallic",
    "atomic_weight": 69.723,
    "melting_point": 302.91,
    "boiling_point": 2477,
    "year_discovered": 1875
  },
  "germanium": {
    "symbol": "Ge",
    "atomic_number": 32,
    "group": 14,
    "period": 4,
    "phase": "solid",
    "element_category": "metalloid",
    "bonding_type": "metallic",
    "atomic_weight": 72.63,
    "melting_point": 1211.5,
    "boiling_point": 3093,
    "year_discovered": 1886
  },
  "arsenic": {
    "symbol": "As",
    "atomic_number": 33,
    "group": 15,
    "period": 4,
    "phase": "solid",
    "element_category": "metalloid",
    "bonding_type": "metallic",
    "atomic_weight": 74.921595,
    "melting_point": 1090,
    "boiling_point": 887,
    "year_discovered": "ancient"
  },
  "selenium": {
    "symbol": "Se",
    "atomic_number": 34,
    "group": 16,
    "period": 4,
    "phase": "solid",
    "element_category": "polyatomic nonmetals",
    "bonding_type": "metallic",
    "atomic_weight": 78.971,
    "melting_point": 494,
    "boiling_point": 958,
    "year_discovered": 1817
  },
  "bromine": {
    "symbol": "Br",
    "atomic_number": 35,
    "group": 17,
    "period": 4,
    "phase": "liquid",
    "element_category": "diatomic nonmetal",
    "bonding_type": "covalent network",
    "atomic_weight": 79.904,
    "melting_point": 265.9,
    "boiling_point": 332,
    "year_discovered": 1826
  },
  "krypton": {
    "symbol": "Kr",
    "atomic_number": 36,
    "group": 18,
    "period": 4,
    "phase": "gas",
    "element_category": "noble gas",
    "bonding_type": "atomic",
    "atomic_weight": 83.798,
    "melting_point": 115.79,
    "boiling_point": 119.93,
    "year_discovered": 1898
  },
  "rubidium": {
    "symbol": "Rb",
    "atomic_number": 37,
    "group": 1,
    "period": 5,
    "phase": "solid",
    "element_category": "alkali metal",
    "bonding_type": "metallic",
    "atomic_weight": 85.4678,
    "melting_point": 312.46,
    "boiling_point": 961,
    "year_discovered": 1861
  },
  "strontium": {
    "symbol": "Sr",
    "atomic_number": 38,
    "group": 2,
    "period": 5,
    "phase": "solid",
    "element_category": "alkaline earth metal",
    "bonding_type": "metallic",
    "atomic_weight": 87.62,
    "melting_point": 1050,
    "boiling_point": 1655,
    "year_discovered": 1790
  },
  "yttrium": {
    "symbol": "Y",
    "atomic_number": 39,
    "group": 3,
    "period": 5,
    "phase": "solid",
    "element_category": "transition metal",
    "bonding_type": "metallic",
    "atomic_weight": 88.90584,
    "melting_point": 1799,
    "boiling_point": 3618,
    "year_discovered": 1794
  },
  "zirconium": {
    "symbol": "Zr",
    "atomic_number": 40,
    "group": 4,
    "period": 5,
    "phase": "solid",
    "element_category": "transition metal",
    "bonding_type": "metallic",
    "atomic_weight": 91.224,
    "melting_point": 2128,
    "boiling_point": 4682,
    "year_discovered": 1789
  },
  "niobium": {
    "symbol": "Nb",
    "atomic_number": 41,
    "group": 5,
    "period": 5,
    "phase": "solid",
    "element_category": "transition metal",
    "bonding_type": "metallic",
    "atomic_weight": 92.90637,
    "melting_point": 2750,
    "boiling_point": 5017,
    "year_discovered": 1801
  },
  "molybdenum": {
    "symbol": "Mo",
    "atomic_number": 42,
    "group": 6,
    "period": 5,
    "phase": "solid",
    "element_category": "transition metal",
    "bonding_type": "metallic",
    "atomic_weight": 95.95,
    "melting_point": 2896,
    "boiling_point": 4912,
    "year_discovered": 1778
  },
  "technetium": {
    "symbol": "Tc",
    "atomic_number": 43,
    "group": 7,
    "period": 5,
    "phase": "solid",
    "element_category": "transition metal",
    "bonding_type": "metallic",
    "atomic_weight": 97,
    "melting_point": 2430,
    "boiling_point": 4538,
    "year_discovered": 1937
  },
  "ruthenium": {
    "symbol": "Ru",
    "atomic_number": 44,
    "group": 8,
    "period": 5,
    "phase": "solid",
    "element_category": "transition metal",
    "bonding_type": "metallic",
    "atomic_weight": 101.07,
    "melting_point": 2607,
    "boiling_point": 4423,
    "year_discovered": 1827
  },
  "rhodium": {
    "symbol": "Rh",
    "atomic_number": 45,
    "group": 9,
    "period": 5,
    "phase": "solid",
    "element_category": "transition metal",
    "bonding_type": "metallic",
    "atomic_weight": 102.9055,
    "melting_point": 2237,
    "boiling_point": 3968,
    "year_discovered": 1803
  },
  "palladium": {
    "symbol": "Pd",
    "atomic_number": 46,
    "group": 10,
    "period": 5,
    "phase": "solid",
    "element_category": "transition metal",
    "bonding_type": "metallic",
    "atomic_weight": 106.42,
    "melting_point": 1828.1,
    "boiling_point": 3236,
    "year_discovered": 1803
  },
  "silver": {
    "symbol": "Ag",
    "atomic_number": 47,
    "group": 11,
    "period": 5,
    "phase": "solid",
    "element_category": "transition metal",
    "bonding_type": "metallic",
    "atomic_weight": 107.8682,
    "melting_point": 1234.93,
    "boiling_point": 2435,
    "year_discovered": "ancient"
  },
  "cadmium": {
    "symbol": "Cd",
    "atomic_number": 48,
    "group": 12,
    "period": 5,
    "phase": "solid",
    "element_category": "transition metal",
    "bonding_type": "metallic",
    "atomic_weight": 112.414,
    "melting_point": 594.22,
    "boiling_point": 1040,
    "year_discovered": 1817
  },
  "indium": {
    "symbol": "In",
    "atomic_number": 49,
    "group": 13,
    "period": 5,
    "phase": "solid",
    "element_category": "post-transition metal",
    "bonding_type": "metallic",
    "atomic_weight": 114.818,
    "melting_point": 429.8,
    "boiling_point": 2345,
    "year_discovered": 1863
  },
  "tin": {
    "symbol": "Sn",
    "atomic_number": 50,
    "group": 14,
    "period": 5,
    "phase": "solid",
    "element_category": "post-transition metal",
    "bonding_type": "metallic",
    "atomic_weight": 118.71,
    "melting_point": 505.08,
    "boiling_point": 2875,
    "year_discovered": "ancient"
  },
  "antimony": {
    "symbol": "Sb",
    "atomic_number": 51,
    "group": 15,
    "period": 5,
    "phase": "solid",
    "element_category": "metalloid",
    "bonding_type": "metallic",
    "atomic_weight": 121.76,
    "melting_point": 903.78,
    "boiling_point": 1860,
    "year_discovered": "ancient"
  },
  "tellurium": {
    "symbol": "Te",
    "atomic_number": 52,
    "group": 16,
    "period": 5,
    "phase": "solid",
    "element_category": "metalloid",
    "bonding_type": "metallic",
    "atomic_weight": 126.90447,
    "melting_point": 722.66,
    "boiling_point": 1261,
    "year_discovered": 1782
  },
  "iodine": {
    "symbol": "In",
    "atomic_number": 53,
    "group": 17,
    "period": 5,
    "phase": "solid",
    "element_category": "diatomic nonmetal",
    "bonding_type": "covalent network",
    "atomic_weight": 127.6,
    "melting_point": 386.9,
    "boiling_point": 457.5,
    "year_discovered": 1811
  },
  "xenon": {
    "symbol": "Xe",
    "atomic_number": 54,
    "group": 18,
    "period": 5,
    "phase": "gas",
    "element_category": "noble gas",
    "bonding_type": "atomic",
    "atomic_weight": 131.293,
    "melting_point": 161.4,
    "boiling_point": 165,
    "year_discovered": 1898
  },
  "cesium": {
    "symbol": "Cs",
    "atomic_number": 55,
    "group": 1,
    "period": 6,
    "phase": "solid",
    "element_category": "alkali metal",
    "bonding_type": "metallic",
    "atomic_weight": 132.90545196,
    "melting_point": 301.59,
    "boiling_point": 944,
    "year_discovered": 1860
  },
  "barium": {
    "symbol": "Ba",
    "atomic_number": 56,
    "group": 2,
    "period": 6,
    "phase": "solid",
    "element_category": "alkaline earth metal",
    "bonding_type": "metallic",
    "atomic_weight": 137.327,
    "melting_point": 1000,
    "boiling_point": 2143,
    "year_discovered": 1808
  },
  "lanthanum": {
    "symbol": "La",
    "atomic_number": 57,
    "group": 3,
    "period": 6,
    "phase": "solid",
    "element_category": "lanthanide",
    "bonding_type": "metallic",
    "atomic_weight": 138.90547,
    "melting_point": 1192,
    "boiling_point": 3737,
    "year_discovered": 1839
  },
  "cerium": {
    "symbol": "Ce",
    "atomic_number": 58,
    "group": null,
    "period": 6,
    "phase": "solid",
    "element_category": "lanthanide",
    "bonding_type": "metallic",
    "atomic_weight": 140.116,
    "melting_point": 1071,
    "boiling_point": 3633,
    "year_discovered": 1803
  },
  "prasedymium": {
    "symbol": "Pr",
    "atomic_number": 59,
    "group": null,
    "period": 6,
    "phase": "solid",
    "element_category": "lanthanide",
    "bonding_type": "metallic",
    "atomic_weight": 140.90766,
    "melting_point": 1204,
    "boiling_point": 3563,
    "year_discovered": 1885
  },
  "neodymium": {
    "symbol": "Nd",
    "atomic_number": 60,
    "group": null,
    "period": 6,
    "phase": "solid",
    "element_category": "lanthanide",
    "bonding_type": "metallic",
    "atomic_weight": 144.242,
    "melting_point": 1294,
    "boiling_point": 3400,
    "year_discovered": 1885
  },
  "promethium": {
    "symbol": "Pm",
    "atomic_number": 61,
    "group": null,
    "period": 6,
    "phase": "solid",
    "element_category": "lanthanide",
    "bonding_type": "metallic",
    "atomic_weight": 145,
    "melting_point": 1400,
    "boiling_point": 3300,
    "year_discovered": 1947
  },
  "samarium": {
    "symbol": "Sm",
    "atomic_number": 62,
    "group": null,
    "period": 6,
    "phase": "solid",
    "element_category": "lanthanide",
    "bonding_type": "metallic",
    "atomic_weight": 150.36,
    "melting_point": 1345,
    "boiling_point": 2076,
    "year_discovered": 1853
  },
  "europium": {
    "symbol": "Eu",
    "atomic_number": 63,
    "group": null,
    "period": 6,
    "phase": "solid",
    "element_category": "lanthanide",
    "bonding_type": "metallic",
    "atomic_weight": 151.964,
    "melting_point": 1095,
    "boiling_point": 1800,
    "year_discovered": 1901
  },
  "gadolinium": {
    "symbol": "Gd",
    "atomic_number": 64,
    "group": null,
    "period": 6,
    "phase": "solid",
    "element_category": "lanthanide",
    "bonding_type": "metallic",
    "atomic_weight": 157.25,
    "melting_point": 1586,
    "boiling_point": 3523,
    "year_discovered": 1880
  },
  "terbium": {
    "symbol": "Tb",
    "atomic_number": 65,
    "group": null,
    "period": 6,
    "phase": "solid",
    "element_category": "lanthanide",
    "bonding_type": "metallic",
    "atomic_weight": 158.92535,
    "melting_point": 1629,
    "boiling_point": 3503,
    "year_discovered": 1843
  },
  "dysprosium": {
    "symbol": "Dy",
    "atomic_number": 66,
    "group": null,
    "period": 6,
    "phase": "solid",
    "element_category": "lanthanide",
    "bonding_type": "metallic",
    "atomic_weight": 162.5,
    "melting_point": 1685,
    "boiling_point": 2840,
    "year_discovered": 1886
  },
  "holmium": {
    "symbol": "Ho",
    "atomic_number": 67,
    "group": null,
    "period": 6,
    "phase": "solid",
    "element_category": "lanthanide",
    "bonding_type": "metallic",
    "atomic_weight": 164.93033,
    "melting_point": 1747,
    "boiling_point": 2973,
    "year_discovered": 1878
  },
  "erbium": {
    "symbol": "Er",
    "atomic_number": 68,
    "group": null,
    "period": 6,
    "phase": "solid",
    "element_category": "lanthanide",
    "bonding_type": "metallic",
    "atomic_weight": 167.259,
    "melting_point": 1770,
    "boiling_point": 3141,
    "year_discovered": 1842
  },
  "thulium": {
    "symbol": "Tm",
    "atomic_number": 69,
    "group": null,
    "period": 6,
    "phase": "solid",
    "element_category": "lanthanide",
    "bonding_type": "metallic",
    "atomic_weight": 168.93422,
    "melting_point": 1818,
    "boiling_point": 2223,
    "year_discovered": 1879
  },
  "ytterbium": {
    "symbol": "Yb",
    "atomic_number": 70,
    "group": null,
    "period": 6,
    "phase": "solid",
    "element_category": "lanthanide",
    "bonding_type": "metallic",
    "atomic_weight": 173.045,
    "melting_point": 1092,
    "boiling_point": 1469,
    "year_discovered": 1878
  },
  "lutetium": {
    "symbol": "Lu",
    "atomic_number": 71,
    "group": null,
    "period": 6,
    "phase": "solid",
    "element_category": "lanthanide",
    "bonding_type": "metallic",
    "atomic_weight": 174.9668,
    "melting_point": 1936,
    "boiling_point": 3675,
    "year_discovered": 1907
  },
  "hafnium": {
    "symbol": "Hf",
    "atomic_number": 72,
    "group": 4,
    "period": 6,
    "phase": "solid",
    "element_category": "transition metal",
    "bonding_type": "metallic",
    "atomic_weight": 178.49,
    "melting_point": 2506,
    "boiling_point": 4876,
    "year_discovered": 1923
  },
  "tantalum": {
    "symbol": "Ta",
    "atomic_number": 73,
    "group": 5,
    "period": 6,
    "phase": "solid",
    "element_category": "transition metal",
    "bonding_type": "metallic",
    "atomic_weight": 180.94788,
    "melting_point": 3290,
    "boiling_point": 5731,
    "year_discovered": 1802
  },
  "tungsten": {
    "symbol": "W",
    "atomic_number": 74,
    "group": 6,
    "period": 6,
    "phase": "solid",
    "element_category": "transition metal",
    "bonding_type": "metallic",
    "atomic_weight": 183.84,
    "melting_point": 3695,
    "boiling_point": 5828,
    "year_discovered": 1783
  },
  "rhenium": {
    "symbol": "Re",
    "atomic_number": 75,
    "group": 7,
    "period": 6,
    "phase": "solid",
    "element_category": "transition metal",
    "bonding_type": "metallic",
    "atomic_weight": 186.207,
    "melting_point": 3459,
    "boiling_point": 5869,
    "year_discovered": 1925
  },
  "osmium": {
    "symbol": "Os",
    "atomic_number": 76,
    "group": 8,
    "period": 6,
    "phase": "solid",
    "element_category": "transition metal",
    "bonding_type": "metallic",
    "atomic_weight": 190.23,
    "melting_point": 3306,
    "boiling_point": 5285,
    "year_discovered": 1803
  },
  "iridium": {
    "symbol": "Ir",
    "atomic_number": 77,
    "group": 9,
    "period": 6,
    "phase": "solid",
    "element_category": "transition metal",
    "bonding_type": "metallic",
    "atomic_weight": 192.217,
    "melting_point": 2739,
    "boiling_point": 4701,
    "year_discovered": 1803
  },
  "platinum": {
    "symbol": "Pt",
    "atomic_number": 78,
    "group": 10,
    "period": 6,
    "phase": "solid",
    "element_category": "transition metal",
    "bonding_type": "metallic",
    "atomic_weight": 195.084,
    "melting_point": 2041.5,
    "boiling_point": 4098,
    "year_discovered": "ancient"
  },
  "gold": {
    "symbol": "Au",
    "atomic_number": 79,
    "group": 11,
    "period": 6,
    "phase": "solid",
    "element_category": "transition metal",
    "bonding_type": "metallic",
    "atomic_weight": 196.966569,
    "melting_point": 1337.33,
    "boiling_point": 3129,
    "year_discovered": "ancient"
  },
  "mercury": {
    "symbol": "Hg",
    "atomic_number": 80,
    "group": 12,
    "period": 6,
    "phase": "liquid",
    "element_category": "transition metal",
    "bonding_type": "metallic",
    "atomic_weight": 200.592,
    "melting_point": 234.32,
    "boiling_point": 629.88,
    "year_discovered": "ancient"
  },
  "thallium": {
    "symbol": "Tl",
    "atomic_number": 81,
    "group": 13,
    "period": 6,
    "phase": "solid",
    "element_category": "post-transition metal",
    "bonding_type": "metallic",
    "atomic_weight": 204.38,
    "melting_point": 577,
    "boiling_point": 1746,
    "year_discovered": 1861
  },
  "lead": {
    "symbol": "Pb",
    "atomic_number": 82,
    "group": 14,
    "period": 6,
    "phase": "solid",
    "element_category": "post-transition metal",
    "bonding_type": "metallic",
    "atomic_weight": 207.2,
    "melting_point": 600.61,
    "boiling_point": 2022,
    "year_discovered": "ancient"
  },
  "bismuth": {
    "symbol": "Bi",
    "atomic_number": 83,
    "group": 15,
    "period": 6,
    "phase": "solid",
    "element_category": "post-transition metal",
    "bonding_type": "metallic",
    "atomic_weight": 208.9804,
    "melting_point": 544.5,
    "boiling_point": 1837,
    "year_discovered": "ancient"
  },
  "polonium": {
    "symbol": "Po",
    "atomic_number": 84,
    "group": 16,
    "period": 6,
    "phase": "solid",
    "element_category": "post-transition metal",
    "bonding_type": "metallic",
    "atomic_weight": 209,
    "melting_point": 527,
    "boiling_point": 1235,
    "year_discovered": 1898
  },
  "astatine": {
    "symbol": "At",
    "atomic_number": 85,
    "group": 17,
    "period": 6,
    "phase": "solid",
    "element_category": "metalloid",
    "bonding_type": "covalent network",
    "atomic_weight": 210,
    "melting_point": 575,
    "boiling_point": 610,
    "year_discovered": 1940
  },
  "radon": {
    "symbol": "Rn",
    "atomic_number": 86,
    "group": 18,
    "period": 6,
    "phase": "gas",
    "element_category": "noble gas",
    "bonding_type": "atomic",
    "atomic_weight": 222,
    "melting_point": 202,
    "boiling_point": 211.5,
    "year_discovered": 1900
  },
  "francium": {
    "symbol": "Fr",
    "atomic_number": 87,
    "group": 1,
    "period": 7,
    "phase": "solid",
    "element_category": "alkali metal",
    "bonding_type": "metallic",
    "atomic_weight": 223,
    "melting_point": 300,
    "boiling_point": 950,
    "year_discovered": 1939
  },
  "radium": {
    "symbol": "Ra",
    "atomic_number": 88,
    "group": 2,
    "period": 7,
    "phase": "solid",
    "element_category": "alkaline earth metal",
    "bonding_type": "metallic",
    "atomic_weight": 226,
    "melting_point": 970,
    "boiling_point": 2010,
    "year_discovered": 1898
  },
  "actinium": {
    "symbol": "Ac",
    "atomic_number": 89,
    "group": 3,
    "period": 7,
    "phase": "solid",
    "element_category": "actinide",
    "bonding_type": "metallic",
    "atomic_weight": 227,
    "melting_point": 1323,
    "boiling_point": 2473,
    "year_discovered": 1899
  },
  "thorium": {
    "symbol": "Th",
    "atomic_number": 90,
    "group": null,
    "period": 7,
    "phase": "solid",
    "element_category": "actinide",
    "bonding_type": "metallic",
    "atomic_weight": 231.03588,
    "melting_point": 2023,
    "boiling_point": 5093,
    "year_discovered": 1828
  },
  "protactinium": {
    "symbol": "Pa",
    "atomic_number": 91,
    "group": null,
    "period": 7,
    "phase": "solid",
    "element_category": "actinide",
    "bonding_type": "metallic",
    "atomic_weight": 232.0377,
    "melting_point": 1845,
    "boiling_point": 4273,
    "year_discovered": 1913
  },
  "uranium": {
    "symbol": "U",
    "atomic_number": 92,
    "group": null,
    "period": 7,
    "phase": "solid",
    "element_category": "actinide",
    "bonding_type": "metallic",
    "atomic_weight": 237,
    "melting_point": 1408,
    "boiling_point": 4200,
    "year_discovered": 1789
  },
  "neptunium": {
    "symbol": "Np",
    "atomic_number": 93,
    "group": null,
    "period": 7,
    "phase": "solid",
    "element_category": "actinide",
    "bonding_type": "metallic",
    "atomic_weight": 238.02891,
    "melting_point": 917,
    "boiling_point": 4300,
    "year_discovered": 1940
  },
  "plutonium": {
    "symbol": "Pu",
    "atomic_number": 94,
    "group": null,
    "period": 7,
    "phase": "solid",
    "element_category": "actinide",
    "bonding_type": "metallic",
    "atomic_weight": 243,
    "melting_point": 913,
    "boiling_point": 3503,
    "year_discovered": 1940
  },
  "americium": {
    "symbol": "Am",
    "atomic_number": 95,
    "group": null,
    "period": 7,
    "phase": "solid",
    "element_category": "actinide",
    "bonding_type": "metallic",
    "atomic_weight": 244,
    "melting_point": 1449,
    "boiling_point": 2284,
    "year_discovered": 1944
  },
  "curium": {
    "symbol": "Cm",
    "atomic_number": 96,
    "group": null,
    "period": 7,
    "phase": "solid",
    "element_category": "actinide",
    "bonding_type": "metallic",
    "atomic_weight": 247,
    "melting_point": 1618,
    "boiling_point": 3383,
    "year_discovered": 1944
  },
  "berkelium": {
    "symbol": "Bk",
    "atomic_number": 97,
    "group": null,
    "period": 7,
    "phase": "solid",
    "element_category": "actinide",
    "bonding_type": "metallic",
    "atomic_weight": 247,
    "melting_point": 1323,
    "boiling_point": "unknown",
    "year_discovered": 1949
  },
  "californium": {
    "symbol": "Cf",
    "atomic_number": 98,
    "group": null,
    "period": 7,
    "phase": "solid",
    "element_category": "actinide",
    "bonding_type": "metallic",
    "atomic_weight": 251,
    "melting_point": 1173,
    "boiling_point": "unknown",
    "year_discovered": 1950
  },
  "einsteinium": {
    "symbol": "Es",
    "atomic_number": 99,
    "group": null,
    "period": 7,
    "phase": "solid",
    "element_category": "actinide",
    "bonding_type": "unknown",
    "atomic_weight": 252,
    "melting_point": 1133,
    "boiling_point": "unknown",
    "year_discovered": 1952
  },
  "fermium": {
    "symbol": "Fm",
    "atomic_number": 100,
    "group": null,
    "period": 7,
    "phase": "unknown",
    "element_category": "actinide",
    "bonding_type": "unknown",
    "atomic_weight": 257,
    "melting_point": 1800,
    "boiling_point": "unknown",
    "year_discovered": 1952
  },
  "medelevium": {
    "symbol": "Md",
    "atomic_number": 101,
    "group": null,
    "period": 7,
    "phase": "unknown",
    "element_category": "actinide",
    "bonding_type": "unknown",
    "atomic_weight": 258,
    "melting_point": 1101,
    "boiling_point": "unknown",
    "year_discovered": 1955
  },
  "nobelium": {
    "symbol": "No",
    "atomic_number": 102,
    "group": null,
    "period": 7,
    "phase": "unknown",
    "element_category": "actinide",
    "bonding_type": "unknown",
    "atomic_weight": 259,
    "melting_point": 1101,
    "boiling_point": "unknown",
    "year_discovered": 1957
  },
  "lawrencium": {
    "symbol": "Lr",
    "atomic_number": 103,
    "group": null,
    "period": 7,
    "phase": "unknown",
    "element_category": "actinide",
    "bonding_type": "unknown",
    "atomic_weight": 262,
    "melting_point": 1900,
    "boiling_point": "unknown",
    "year_discovered": 1961
  },
  "rutherfordium": {
    "symbol": "Rf",
    "atomic_number": 104,
    "group": 4,
    "period": 7,
    "phase": "unknown",
    "element_category": "transition metal",
    "bonding_type": "unknown",
    "atomic_weight": 267,
    "melting_point": "unknown",
    "boiling_point": "unknown",
    "year_discovered": 1969
  },
  "dubnium": {
    "symbol": "Db",
    "atomic_number": 105,
    "group": 5,
    "period": 7,
    "phase": "unknown",
    "element_category": "transition metal",
    "bonding_type": "unknown",
    "atomic_weight": 269,
    "melting_point": "unknown",
    "boiling_point": "unknown",
    "year_discovered": 1967
  },
  "seaborgium": {
    "symbol": "Sg",
    "atomic_number": 106,
    "group": 6,
    "period": 7,
    "phase": "unknown",
    "element_category": "transition metal",
    "bonding_type": "unknown",
    "atomic_weight": 270,
    "melting_point": "unknown",
    "boiling_point": "unknown",
    "year_discovered": 1974
  },
  "bohrium": {
    "symbol": "Bh",
    "atomic_number": 107,
    "group": 7,
    "period": 7,
    "phase": "unknown",
    "element_category": "transition metal",
    "bonding_type": "unknown",
    "atomic_weight": 270,
    "melting_point": "unknown",
    "boiling_point": "unknown",
    "year_discovered": 1976
  },
  "hassium": {
    "symbol": "Hs",
    "atomic_number": 108,
    "group": 8,
    "period": 7,
    "phase": "unknown",
    "element_category": "transition metal",
    "bonding_type": "unknown",
    "atomic_weight": 270,
    "melting_point": "unknown",
    "boiling_point": "unknown",
    "year_discovered": 1984
  },
  "meitnerium": {
    "symbol": "Mt",
    "atomic_number": 109,
    "group": 9,
    "period": 7,
    "phase": "unknown",
    "element_category": "unknown",
    "bonding_type": "unknown",
    "atomic_weight": 278,
    "melting_point": "unknown",
    "boiling_point": "unknown",
    "year_discovered": 1982
  },
  "darmstadtium": {
    "symbol": "Ds",
    "atomic_number": 110,
    "group": 10,
    "period": 7,
    "phase": "unknown",
    "element_category": "unknown",
    "bonding_type": "unknown",
    "atomic_weight": 281,
    "melting_point": "unknown",
    "boiling_point": "unknown",
    "year_discovered": 1994
  },
  "roentgenium": {
    "symbol": "Rg",
    "atomic_number": 111,
    "group": 11,
    "period": 7,
    "phase": "unknown",
    "element_category": "unknown",
    "bonding_type": "unknown",
    "atomic_weight": 281,
    "melting_point": "unknown",
    "boiling_point": "unknown",
    "year_discovered": 1994
  },
  "copernicium": {
    "symbol": "Cn",
    "atomic_number": 112,
    "group": 12,
    "period": 7,
    "phase": "unknown",
    "element_category": "transition metal",
    "bonding_type": "unknown",
    "atomic_weight": 285,
    "melting_point": "unknown",
    "boiling_point": "unknown",
    "year_discovered": 1996
  },
  "nihonium": {
    "symbol": "Nh",
    "atomic_number": 113,
    "group": 13,
    "period": 7,
    "phase": "unknown",
    "element_category": "unknown",
    "bonding_type": "unknown",
    "atomic_weight": 286,
    "melting_point": "unknown",
    "boiling_point": "unknown",
    "year_discovered": 2003
  },
  "flerovium": {
    "symbol": "Fl",
    "atomic_number": 114,
    "group": 14,
    "period": 7,
    "phase": "unknown",
    "element_category": "post-transition metal",
    "bonding_type": "unknown",
    "atomic_weight": 289,
    "melting_point": "unknown",
    "boiling_point": "unknown",
    "year_discovered": 1998
  },
  "moscovium": {
    "symbol": "Mc",
    "atomic_number": 115,
    "group": 15,
    "period": 7,
    "phase": "unknown",
    "element_category": "unknown",
    "bonding_type": "unknown",
    "atomic_weight": 289,
    "melting_point": "unknown",
    "boiling_point": "unknown",
    "year_discovered": 2003
  },
  "livermorium": {
    "symbol": "Lv",
    "atomic_number": 116,
    "group": 16,
    "period": 7,
    "phase": "unknown",
    "element_category": "unknown",
    "bonding_type": "unknown",
    "atomic_weight": 293,
    "melting_point": "unknown",
    "boiling_point": "unknown",
    "year_discovered": 2000
  },
  "tennessine": {
    "symbol": "Ts",
    "atomic_number": 117,
    "group": 17,
    "period": 7,
    "phase": "unknown",
    "element_category": "unknown",
    "bonding_type": "unknown",
    "atomic_weight": 293,
    "melting_point": "unknown",
    "boiling_point": "unknown",
    "year_discovered": 2010
  },
  "oganesson": {
    "symbol": "Og",
    "atomic_number": 118,
    "group": 18,
    "period": 7,
    "phase": "unknown",
    "element_category": "unknown",
    "bonding_type": "unknown",
    "atomic_weight": 294,
    "melting_point": "unknown",
    "boiling_point": "unknown",
    "year_discovered": 2002
  }
}